4
Lattice="4.195386834289107 0.0 0.0 -1.0488467085722768 1.8166557885985708 0.0 0.0 0.0 3.310878759598904" Properties=species:S:1:pos:R:3:momenta:R:3:forces:R:3 energy=-14.979938507080078 stress="-429.398193359375 54.52703094482422 -6.026012420654297 54.52717208862305 -497.7555236816406 5.497457981109619 -6.02610445022583 5.497523307800293 -578.8441772460938" free_energy=-14.979938507080078 pbc="T T T"
Fe       3.38528491       1.29251250       0.66952695      -7.37441850       5.37474784     -10.11115796       1.86954129       3.53088236      -7.83622456
Fe       1.97685119       0.54377955       2.66198483      -2.34579403       1.05910200       3.44559544      -8.34325790      -3.61673260       5.15216541
Fe       1.23932393       1.38575825       1.07111051       6.37941788      -9.49576774       2.94029429      -2.01086092      -3.56906724      -5.30233049
Fe       3.88700705       0.41126128       2.21913522       3.34079464       3.06191790       3.72526824       8.48457718       3.65491772       7.98638964
4
Lattice="4.195386834289107 0.0 0.0 -1.0488467085722768 1.8166557885985708 0.0 0.0 0.0 3.310878759598904" Properties=species:S:1:pos:R:3:momenta:R:3:forces:R:3 energy=-13.886310577392578 stress="-529.4117431640625 35.38737487792969 0.7311115860939026 35.387264251708984 -516.003173828125 8.965591430664062 0.7310190796852112 8.96558952331543 -541.1824340820312" free_energy=-13.886310577392578 pbc="T T T"
Fe      -0.84582310       1.80506749       3.19831175      -2.36344393      -0.11662824      -3.78130084      -1.67721677       1.37302625       8.17478752
Fe       2.22910277       0.17720813       0.06476396      -5.34245072      -6.66263668      11.14362029       2.63726473      -0.39122850       1.24749255
Fe       1.22191450       0.83627022       1.73127138       4.90313910       7.07532805      -5.35335124      16.65446472       5.76234484      -2.69670081
Fe       3.68788608       0.81476573       1.62741042       2.80275555      -0.29606313      -2.00896821     -17.61451912      -6.74414396      -6.72557878
4
Lattice="4.195386834289107 0.0 0.0 -1.0488467085722768 1.8166557885985708 0.0 0.0 0.0 3.310878759598904" Properties=species:S:1:pos:R:3:momenta:R:3:forces:R:3 energy=-13.076338768005371 stress="-522.34228515625 -7.582200050354004 -26.887529373168945 -7.582241058349609 -508.722900390625 7.904780387878418 -26.88762092590332 7.904820442199707 -593.401123046875" free_energy=-13.076338768005371 pbc="T T T"
Fe       0.16395310       0.02837355       2.89097378       2.01955325       6.99554434       5.32562023       0.54133064       0.24377570      -1.22225869
Fe       2.04443690       0.02907596       0.47776533      -0.46560645      -8.00167834     -10.69185464      -9.70717049      -4.85890579      -8.56245708
Fe       1.66124455       1.03546863       2.06552191      -2.17602434       3.40618006       5.61829382      -5.19723415      -3.96649647       5.93805218
Fe       3.47229241       0.72373764       1.18749650       0.62207754      -2.40004606      -0.25205941      14.36307716       8.58162689       3.84666395
4
Lattice="4.195386834289107 0.0 0.0 -1.0488467085722768 1.8166557885985708 0.0 0.0 0.0 3.310878759598904" Properties=species:S:1:pos:R:3:momenta:R:3:forces:R:3 energy=-13.821136474609375 stress="-523.4837036132812 -38.12826156616211 -6.555992126464844 -38.128074645996094 -486.474853515625 23.779891967773438 -6.555964469909668 23.779891967773438 -550.5296630859375" free_energy=-13.821136474609375 pbc="T T T"
Fe       3.93371050       0.04367797       0.56001627      -2.68135356      -0.90344077      -8.93143257       3.51400948      -0.55054164      -1.22340822
Fe       2.36463566       0.02288392       2.74631195      -0.52842078      -0.42835388      -0.15527963      -7.27418232      -2.96877909       2.09713078
Fe       1.44640563       0.74521346       1.12876115       8.07552480       2.20347997      -4.25265859       0.45100796      -1.63632715      -1.50552809
Fe      -0.40282482       1.00488044       2.18666814      -4.86575046      -0.87168532      13.33937080       3.30916667       5.15564823       0.63180482
4
Lattice="4.195386834289107 0.0 0.0 -1.0488467085722768 1.8166557885985708 0.0 0.0 0.0 3.310878759598904" Properties=species:S:1:pos:R:3:momenta:R:3:forces:R:3 energy=-13.684311866760254 stress="-483.7159423828125 21.024396896362305 29.9514102935791 21.02445411682129 -476.7545471191406 -50.080528259277344 29.951343536376953 -50.08053970336914 -597.2025146484375" free_energy=-13.684311866760254 pbc="T T T"
Fe      -0.49881486       1.21959965       2.78902868     -11.40585116       1.38070144       4.30704042     -12.92747498      -3.97569418       5.79303789
Fe       1.69796587       0.62059583       0.43194040       5.28169202      -3.56381949       2.13858204       2.16292477       3.47913265       9.90238476
Fe       1.13414707       1.58072063       2.19936813       3.67767495       3.00873937       4.95044438      10.94614029       1.09281325     -11.62453365
Fe       3.95978217       0.21239547       1.20142031       2.44648419      -0.82562132     -11.39606684      -0.18159112      -0.59625238      -4.07088947
4
Lattice="3.166581375332089 0.0 0.0 0.0 3.166581375332089 0.0 0.0 0.0 3.166581375332089" Properties=species:S:1:pos:R:3:momenta:R:3:forces:R:3 energy=-28.765380859375 stress="-190.77720642089844 0.7370069622993469 -2.4090962409973145 0.7370012402534485 -191.5416259765625 -0.7047247886657715 -2.4091031551361084 -0.7047175765037537 -188.24465942382812" free_energy=-28.765380859375 pbc="T T T"
Fe       3.12399959       3.06482220       0.10161579      -3.82396240       2.44462744      -1.08950525       1.73510492       4.62459278      -5.25296497
Fe       3.16652885       1.58948662       1.50540183      -4.96651100       1.46938380       5.69742555       1.77093101      -0.98968083       3.88073158
Fe       1.57133649       0.02147741       1.62195181       5.02317357      -1.54150532      -1.65261432      -0.52363509       0.56215072      -0.16531733
Fe       1.63787919       1.65737653       3.10419332       3.76729983      -2.37250592      -2.95530598      -2.98240113      -4.19706249       1.53754926
4
Lattice="3.166581375332089 0.0 0.0 0.0 3.166581375332089 0.0 0.0 0.0 3.166581375332089" Properties=species:S:1:pos:R:3:momenta:R:3:forces:R:3 energy=-28.38918113708496 stress="-197.4741668701172 -2.0629680156707764 7.449708938598633 -2.0629775524139404 -204.9265594482422 -1.534828782081604 7.4497151374816895 -1.534825086593628 -195.63706970214844" free_energy=-28.38918113708496 pbc="T T T"
Fe       0.01707520       0.04956281       0.02117266      -5.41225391      -5.53774102      -0.72879305       1.01713800      -2.97447443      -0.10280958
Fe       3.06803017       1.64120494       1.48838166       1.24077780       6.04717721       0.00302372       5.96296740      -0.43237725       2.79261661
Fe       1.64133166       3.14207617       1.70432971       1.44167030      -2.12904947       1.21975467      -3.73500824       0.07865951      -5.62349319
Fe       1.60672572       1.50031883       3.11927872       2.72980581       1.61961328      -0.49398535      -3.24509692       3.32819223       2.93368578
4
Lattice="3.166581375332089 0.0 0.0 0.0 3.166581375332089 0.0 0.0 0.0 3.166581375332089" Properties=species:S:1:pos:R:3:momenta:R:3:forces:R:3 energy=-28.13778305053711 stress="-194.70407104492188 -3.3814337253570557 -3.0289359092712402 -3.381432056427002 -198.2352752685547 5.434980869293213 -3.0289359092712402 5.434996128082275 -188.7083282470703" free_energy=-28.13778305053711 pbc="T T T"
Fe       3.13737604       0.07954974       3.08396705       5.55789245       1.34044972       0.63078762       2.31632280      -5.40244102       5.94583130
Fe       3.14792187       1.48959469       1.72671162      -2.80262046       4.22955102      -0.30550639       1.43997669       4.86505795      -7.80025387
Fe       1.64480955       0.00896630       1.57513113      -0.35194015      -0.56937412       1.60424703      -3.16381025      -2.59880066      -3.74612045
Fe       1.56963666       1.58847065       3.11393432      -2.40333184      -5.00062662      -1.92952826      -0.59248948       3.13618374       5.60054302
4
Lattice="3.166581375332089 0.0 0.0 0.0 3.166581375332089 0.0 0.0 0.0 3.166581375332089" Properties=species:S:1:pos:R:3:momenta:R:3:forces:R:3 energy=-28.536619186401367 stress="-192.81610107421875 -1.6024935245513916 -0.4925844669342041 -1.6025010347366333 -197.41839599609375 -3.4535973072052 -0.4925820827484131 -3.45359468460083 -189.68136596679688" free_energy=-28.536619186401367 pbc="T T T"
Fe       3.04164111       3.11883322       0.02284742       1.06985029       1.25904916      -4.21387602       7.47796965       0.81995833      -0.31869543
Fe       0.00903902       1.51603165       1.60781590       7.12904846      -2.80025088       4.60689256       3.15394306       3.28264713      -0.30144984
Fe       1.57242990       0.03560484       1.55365038      -3.16847497      -1.67279111      -1.12125196      -3.09438467      -0.95460916       0.80091846
Fe       1.71005272       1.66269304       3.14884906      -5.03042378       3.21399283       0.72823542      -7.53752804      -3.14799595      -0.18077323
4
Lattice="3.166581375332089 0.0 0.0 0.0 3.166581375332089 0.0 0.0 0.0 3.166581375332089" Properties=species:S:1:pos:R:3:momenta:R:3:forces:R:3 energy=-28.260295867919922 stress="-200.09007263183594 0.6367158889770508 4.085237979888916 0.6367139220237732 -195.4425506591797 -3.427210807800293 4.085216522216797 -3.4272069931030273 -194.83059692382812" free_energy=-28.260295867919922 pbc="T T T"
Fe       0.03037276       3.12958461       0.01070284      -2.71780279      -0.57583130       7.27253910      -1.24852681       3.14914036       1.34898055
Fe       3.09717515       1.73141834       1.46714759      -0.09489467      -0.14297572      -5.72836445       2.21163225      -6.87952518       3.37579203
Fe       1.64479203       3.11778532       1.70767088       0.95421524       1.31731877      -4.52404650      -1.83269906       3.69549322      -5.39565086
Fe       1.56082281       1.52095586       3.14764144       1.85848222      -0.59851175       2.97987185       0.86959392       0.03489236       0.67087847
4
Lattice="4.786238592556914 0.0 0.0 0.0 2.393119296278457 0.0 0.0 0.0 2.393119296278457" Properties=species:S:1:pos:R:3:momenta:R:3:forces:R:3 energy=-21.3355712890625 stress="-332.4259948730469 5.454224586486816 -5.232525825500488 5.454254627227783 -341.779052734375 -1.4893169403076172 -5.232505798339844 -1.489303708076477 -335.16326904296875" free_energy=-21.3355712890625 pbc="T T T"
Fe       4.73883135       0.07553401       0.09484162       2.09426291       4.93540089      -2.32583573       4.05362654      -4.94545984      -6.57158995
Fe       1.17212158       1.16218618       1.14398930      -0.81646396       3.87975095      -2.39875905       1.29733586       2.02039146       3.06051397
Fe       2.35286202       2.38105506       0.00242950      -5.29933650      -4.09659104      -1.62974797       4.33608675      -0.70820063      -1.21432006
Fe       3.70178152       1.16746335       1.15185888       4.02153755      -4.71856080       6.35434275      -9.68704224       3.63326979       4.72539520
4
Lattice="4.786238592556914 0.0 0.0 0.0 2.393119296278457 0.0 0.0 0.0 2.393119296278457" Properties=species:S:1:pos:R:3:momenta:R:3:forces:R:3 energy=-21.41912078857422 stress="-333.73858642578125 -4.295993328094482 1.6989631652832031 -4.295988082885742 -338.84442138671875 6.085757255554199 1.6989665031433105 6.085737705230713 -337.1714172363281" free_energy=-21.41912078857422 pbc="T T T"
Fe       0.05551634       0.00318467       0.10123039      -1.70537381       4.42268354       3.94326484      -4.87714958      -1.67324805      -4.91664219
Fe       1.22283562       1.11086647       1.13140982       2.53235798       2.69985785     -11.12448138      -0.95607257       5.10204792       3.43976736
Fe       2.42322534       0.05413880       2.35122492       3.33860936      -1.78619265       1.85977158      -2.18968153      -3.36306238       0.35755238
Fe       3.47778060       1.22492936       1.20237347      -4.16559354      -5.33634874       5.32144497       8.02290344      -0.06573829       1.11932230
4
Lattice="4.786238592556914 0.0 0.0 0.0 2.393119296278457 0.0 0.0 0.0 2.393119296278457" Properties=species:S:1:pos:R:3:momenta:R:3:forces:R:3 energy=-20.214208602905273 stress="-376.6119079589844 0.0762874111533165 -2.2540619373321533 0.07626406103372574 -339.86962890625 5.491992950439453 -2.25409197807312 5.4919962882995605 -366.13800048828125" free_energy=-20.214208602905273 pbc="T T T"
Fe       4.72152520       2.22993299       0.02496187       1.17942574       2.50173745      -0.24287558       6.13348246      10.24051285      -0.48996806
Fe       1.19230370       1.21190241       1.32204109      -4.21396055       0.40264465      -6.10747536       0.56298018      -3.58650136      -5.12626314
Fe       2.42181392       0.00619436       2.27336445      -0.97027942       2.25896825      -2.32066307      -2.05491638       3.16302252       5.40394402
Fe       3.62995366       1.33820883       1.16587118       4.00481423      -5.16335036       8.67101402      -4.64155006      -9.81703281       0.21228850
4
Lattice="4.786238592556914 0.0 0.0 0.0 2.393119296278457 0.0 0.0 0.0 2.393119296278457" Properties=species:S:1:pos:R:3:momenta:R:3:forces:R:3 energy=-20.95443344116211 stress="-346.7334899902344 5.169521331787109 -15.588583946228027 5.169508457183838 -352.08123779296875 7.47563362121582 -15.588589668273926 7.475640773773193 -321.2942810058594" free_energy=-20.95443344116211 pbc="T T T"
Fe       0.06194562       2.36809432       0.08840753       2.68253803      -7.04125602       3.71779349      -3.90914345       0.38013420      -2.90366364
Fe       1.19136581       1.13418902       1.35121032       3.23464215       6.89403905      -2.21592140      -0.58053267       3.30455375      -6.19924974
Fe       2.31561270       0.03449841       2.31041461      -0.77209630      -3.19376667      -6.37602933       6.11867142      -2.22862530       2.69224763
Fe       3.61043376       1.24945683       1.03620614      -5.14508388       3.34098364       4.87415724      -1.62899733      -1.45606184       6.41066694
4
Lattice="4.786238592556914 0.0 0.0 0.0 2.393119296278457 0.0 0.0 0.0 2.393119296278457" Properties=species:S:1:pos:R:3:momenta:R:3:forces:R:3 energy=-20.367874145507812 stress="-367.317626953125 16.430404663085938 -12.98788833618164 16.430408477783203 -347.4372253417969 5.768815517425537 -12.987895965576172 5.7688188552856445 -358.2704772949219" free_energy=-20.367874145507812 pbc="T T T"
Fe       4.75282818       0.08077039       0.02145752      -6.46688804       0.42237133       4.89247966       1.90555906      -5.66472435      -2.83378482
Fe       1.27820612       1.04717597       1.30939055       1.67696509      -3.17055972       1.31740411      -6.26312923       8.89210129      -3.38939524
Fe       2.33746678       0.07412852       0.02536095      -1.31957506       4.30251036      -6.79291690       4.94582462      -6.40446281      -0.48306924
Fe       3.59709540       1.19104441       1.03691028       6.10949800      -1.55432197       0.58303313      -0.58825386       3.17708635       6.70624924
