4
Lattice="2.217191696166992 0.0 0.0 -0.3805043399333954 3.7300307750701904 0.0 -0.6222143173217773 -1.9418936967849731 3.599550485610962" Properties=species:S:1:pos:R:3 energy=21.85812759399414 pbc="T T T"
Fe       1.50509608      -0.57999837       1.86463475
Fe       0.07167850       1.26549709       1.77470863
Fe       0.45904961       0.04769217       3.54738045
Fe       0.00000000       0.00000000       0.00000000
4
Lattice="2.503283977508545 0.0 0.0 1.5328192763644537e-16 2.503283977508545 0.0 3.0656385527289074e-16 3.0656385527289074e-16 5.00656795501709" Properties=species:S:1:pos:R:3 energy=20.828468322753906 pbc="T T T"
Fe       1.14147568       1.35447109       3.53918910
Fe       2.33601427       0.28380457       2.58789778
Fe       1.13594759       1.06910479       1.13672733
Fe       0.00000000       0.00000000       0.00000000
4
Lattice="2.7816920280456543 0.0 0.0 0.16505755484104156 2.9726202487945557 0.0 0.08236432075500488 0.11236294358968735 2.996945381164551" Properties=species:S:1:pos:R:3 energy=26.936904907226562 pbc="T T T"
Fe       1.65294850       1.53970110       2.86810160
Fe       0.29776731       1.48304391       1.47288799
Fe       1.74482429       2.90398479       1.34574413
Fe       0.00000000       0.00000000       0.00000000
4
Lattice="1.9470620155334473 0.0 0.0 -0.21438415348529816 3.6842782497406006 0.0 -0.4716812074184418 -0.4171755909919739 3.6844139099121094" Properties=species:S:1:pos:R:3 energy=25.41654396057129 pbc="T T T"
Fe       1.27260852       1.47740412       2.58918095
Fe       0.39578205       3.29079032       1.92854857
Fe       0.35051546       1.51398420       0.72787780
Fe       0.00000000       0.00000000       0.00000000
4
Lattice="2.1987428665161133 0.0 0.0 -0.5281676650047302 3.6852529048919678 0.0 -0.22259926795959473 -1.704481840133667 3.6907856464385986" Properties=species:S:1:pos:R:3 energy=21.991464614868164 pbc="T T T"
Fe       1.03812718      -0.64930063       1.71133387
Fe       0.63272393       0.26093930       3.64481497
Fe       1.65314591       1.31565821       2.01237726
Fe       0.00000000       0.00000000       0.00000000
4
Lattice="2.8229973316192627 0.0 0.0 -0.009658711031079292 3.151759386062622 0.0 -0.12474652379751205 -0.11050715297460556 5.614606857299805" Properties=species:S:1:pos:R:3 energy=11.878727912902832 pbc="T T T"
Fe       0.00000000       0.00000000       0.00000000
Fe       1.01359034       1.57744384       1.80689275
Fe       2.29586530       2.72441030       3.22305846
Fe       0.86699218       1.62130964       4.22191525
4
Lattice="2.270111560821533 0.0 0.0 -0.512604832649231 3.595789909362793 0.0 -0.3455486595630646 -1.3764851093292236 3.5084493160247803" Properties=species:S:1:pos:R:3 energy=23.65779685974121 pbc="T T T"
Fe       1.42516875      -0.50110966       1.64540577
Fe       0.75226247       0.41614792       3.27263880
Fe       0.17461437       1.38736439       1.47257710
Fe       0.00000000       0.00000000       0.00000000
4
Lattice="2.5969388484954834 0.0 0.0 -0.6177051663398743 2.8064026832580566 0.0 -1.1409270763397217 -0.9057341814041138 5.298379898071289" Properties=species:S:1:pos:R:3 energy=16.595792770385742 pbc="T T T"
Fe      -0.10792191       0.93959093       3.91797853
Fe       0.69869965      -0.28125870       2.27436376
Fe       1.16375542       1.71861279       1.03356016
Fe       0.00000000       0.00000000       0.00000000
4
Lattice="2.4530036449432373 0.0 0.0 1.502031481616332e-16 2.4530036449432373 0.0 3.004062963232664e-16 3.004062963232664e-16 4.906007289886475" Properties=species:S:1:pos:R:3 energy=22.271512985229492 pbc="T T T"
Fe       1.37169862       1.23240542       3.59068155
Fe       0.02624228       2.21926618       2.47285223
Fe       1.27277148       1.07865036       1.11194324
Fe       0.00000000       0.00000000       0.00000000
4
Lattice="2.9680306911468506 0.0 0.0 -0.08043178170919418 3.1419599056243896 0.0 -0.5239442586898804 -0.07449609786272049 5.226234436035156" Properties=species:S:1:pos:R:3 energy=12.411426544189453 pbc="T T T"
Fe       1.44405520       1.99775314       1.30763268
Fe      -0.20984159       0.04968739       3.01377630
Fe       1.49936759       1.50702965       4.38130856
Fe       0.00000000       0.00000000       0.00000000
4
Lattice="2.4426968097686768 0.0 0.0 1.4957204244147974e-16 2.4426968097686768 0.0 2.991440584131799e-16 2.991440584131799e-16 4.885393142700195" Properties=species:S:1:pos:R:3 energy=23.587337493896484 pbc="T T T"
Fe       1.63373697       1.13013756       3.64030576
Fe       0.34212086       2.22220254       2.50485659
Fe       0.81142902       1.34382391       1.15338552
Fe       0.00000000       0.00000000       0.00000000
4
Lattice="2.6946873664855957 0.0 0.0 0.820425271987915 2.9396321773529053 0.0 0.3557111918926239 1.065405249595642 5.626002311706543" Properties=species:S:1:pos:R:3 energy=13.988734245300293 pbc="T T T"
Fe       2.15528774       1.83318508       4.31242895
Fe       1.06549346       3.30742550       2.44005299
Fe       2.31216764       1.65495384       0.96959233
Fe       0.00000000       0.00000000       0.00000000
4
Lattice="2.4426968097686768 0.0 0.0 1.4957204244147974e-16 2.4426968097686768 0.0 2.991440584131799e-16 2.991440584131799e-16 4.885393142700195" Properties=species:S:1:pos:R:3 energy=22.73387908935547 pbc="T T T"
Fe       0.96691895       1.68548989       3.71813893
Fe       0.00844462       0.26959375       2.63287306
Fe       1.42421699       1.27697849       1.22243643
Fe       0.00000000       0.00000000       0.00000000
4
Lattice="2.1958017349243164 0.0 0.0 -0.4590896666049957 2.9357364177703857 0.0 -0.11441799253225327 -0.5552516579627991 5.71919059753418" Properties=species:S:1:pos:R:3 energy=17.424875259399414 pbc="T T T"
Fe       0.65214187       1.49319112       4.34810114
Fe       2.05471301      -0.14735563       2.47645473
Fe       0.35576341       1.36857295       1.00725830
Fe       0.00000000       0.00000000       0.00000000
4
Lattice="2.4834158420562744 0.0 0.0 1.5206536333106158e-16 2.4834158420562744 0.0 3.0413070019234356e-16 3.0413070019234356e-16 4.966831207275391" Properties=species:S:1:pos:R:3 energy=21.78297233581543 pbc="T T T"
Fe       2.05233121       1.37571549       3.74581146
Fe       0.94041955       0.21708441       2.55869102
Fe       0.97885448       1.30508459       1.02991378
Fe       0.00000000       0.00000000       0.00000000
4
Lattice="2.2458763122558594 0.0 0.0 -0.677108108997345 3.6966006755828857 0.0 -0.06140986457467079 -1.4836279153823853 3.54386830329895" Properties=species:S:1:pos:R:3 energy=23.038883209228516 pbc="T T T"
Fe       1.36468482       0.86495024       1.87705517
Fe       0.23583224       2.62780809       1.55725741
Fe       0.81384027       0.37864691       3.48037529
Fe       0.00000000       0.00000000       0.00000000
4
Lattice="2.2774860858917236 0.0 0.0 -0.2866092622280121 3.3170740604400635 0.0 -0.2851378619670868 -0.6201062202453613 3.5303101539611816" Properties=species:S:1:pos:R:3 energy=25.744150161743164 pbc="T T T"
Fe       0.21129568       1.10272563       1.93740392
Fe       0.99856389       2.70674801       1.85175884
Fe       1.12348354       1.64321387       0.03823499
Fe       0.00000000       0.00000000       0.00000000
4
Lattice="2.4218180179595947 0.0 0.0 1.4829359179138719e-16 2.4218180179595947 0.0 2.9658715711299477e-16 2.9658715711299477e-16 4.843635559082031" Properties=species:S:1:pos:R:3 energy=23.386619567871094 pbc="T T T"
Fe       1.10585225       1.45604682       3.44726562
Fe       2.37831473       0.33452827       2.30452418
Fe       0.85837877       1.36430109       1.06197834
Fe       0.00000000       0.00000000       0.00000000
4
Lattice="2.1199023723602295 0.0 0.0 -0.5946158170700073 3.8695597648620605 0.0 -0.7478741407394409 -1.810660481452942 3.499005079269409" Properties=species:S:1:pos:R:3 energy=22.943546295166016 pbc="T T T"
Fe       0.41401303      -0.06497984       3.37090540
Fe       0.05410295       0.92744690       1.80126941
Fe       0.31176478       2.95626640       1.44444239
Fe       0.00000000       0.00000000       0.00000000
4
Lattice="2.123670816421509 0.0 0.0 -0.4780695140361786 3.6940572261810303 0.0 -0.22072862088680267 -1.8090145587921143 3.7282462120056152" Properties=species:S:1:pos:R:3 energy=22.564468383789062 pbc="T T T"
Fe       0.34903973       2.69209599       1.64605284
Fe       0.32372558      -0.16154808       3.68859982
Fe       1.45219862       0.81408370       1.85503066
Fe       0.00000000       0.00000000       0.00000000
4
Lattice="2.6952054500579834 0.0 0.0 -0.09915091097354889 3.149531841278076 0.0 -0.06696267426013947 -0.6964579224586487 5.661643028259277" Properties=species:S:1:pos:R:3 energy=12.557647705078125 pbc="T T T"
Fe       1.68837178       1.19321918       4.28724051
Fe       0.06066296      -0.20646031       2.45420289
Fe       1.26834095       1.93964052       1.06374502
Fe       0.00000000       0.00000000       0.00000000
4
Lattice="2.4112420082092285 0.0 0.0 1.4764599539854187e-16 2.4112420082092285 0.0 2.9529199079708374e-16 2.9529199079708374e-16 4.822484016418457" Properties=species:S:1:pos:R:3 energy=23.741641998291016 pbc="T T T"
Fe       1.05239069       0.79876018       3.40215707
Fe       2.20401025       1.98165333       2.04659629
Fe       1.00275648       1.09680021       0.96817029
Fe       0.00000000       0.00000000       0.00000000
4
Lattice="2.239956855773926 0.0 0.0 0.3133902847766876 3.597101926803589 0.0 0.099204882979393 0.24592573940753937 3.6944456100463867" Properties=species:S:1:pos:R:3 energy=22.050437927246094 pbc="T T T"
Fe       0.70187491       1.54773855       2.12957907
Fe       1.77074003       1.78921962       0.37593436
Fe       1.75930262       3.35908890       1.97480941
Fe       0.00000000       0.00000000       0.00000000
4
Lattice="2.493389368057251 0.0 0.0 1.5267606085114213e-16 2.493389368057251 0.0 3.0535212170228426e-16 3.0535212170228426e-16 4.986778736114502" Properties=species:S:1:pos:R:3 energy=21.1003475189209 pbc="T T T"
Fe       1.46704173       1.32764769       3.77937794
Fe       0.21713327       0.11034978       2.86811471
Fe       1.66164887       1.34071898       1.28189611
Fe       0.00000000       0.00000000       0.00000000
4
Lattice="2.1720714569091797 0.0 0.0 -0.4157400131225586 3.6677186489105225 0.0 -0.08858459442853928 -1.2722880840301514 3.652209758758545" Properties=species:S:1:pos:R:3 energy=22.64388084411621 pbc="T T T"
Fe       0.42510796       0.58085304       3.30526018
Fe       0.77015424       2.61968780       1.86690855
Fe       1.52696860       1.03319716       1.35661197
Fe       0.00000000       0.00000000       0.00000000
4
Lattice="2.011705160140991 0.0 0.0 -0.3426050543785095 3.9151289463043213 0.0 -0.46228668093681335 -1.7131571769714355 3.7713570594787598" Properties=species:S:1:pos:R:3 energy=22.163400650024414 pbc="T T T"
Fe       0.70889181       3.10501456       1.68826365
Fe       1.28189337       1.36458111       1.67739379
Fe       0.30822334       0.33500725       3.52136898
Fe       0.00000000       0.00000000       0.00000000
4
Lattice="2.503283977508545 0.0 0.0 1.5328192763644537e-16 2.503283977508545 0.0 3.0656385527289074e-16 3.0656385527289074e-16 5.00656795501709" Properties=species:S:1:pos:R:3 energy=20.895465850830078 pbc="T T T"
Fe       0.86209154       1.08653831       3.72553945
Fe       1.89696288       2.28641129       2.34931111
Fe       1.16458178       1.25754821       0.98625219
Fe       0.00000000       0.00000000       0.00000000
4
Lattice="2.0466384887695312 0.0 0.0 -0.4730863571166992 3.8803069591522217 0.0 -0.748711884021759 -1.9404518604278564 3.619121551513672" Properties=species:S:1:pos:R:3 energy=22.931467056274414 pbc="T T T"
Fe       0.72029185       1.94542062       0.55627406
Fe       0.23891419      -1.00545824       2.03542542
Fe       1.35883105       0.82318455       2.07992744
Fe       0.00000000       0.00000000       0.00000000
4
Lattice="2.682013511657715 0.0 0.0 -0.5071786642074585 2.9358108043670654 0.0 -0.7532698512077332 -0.13723760843276978 4.915910720825195" Properties=species:S:1:pos:R:3 energy=16.37558364868164 pbc="T T T"
Fe       0.00000000       0.00000000       0.00000000
Fe       0.24771743       1.27917552       3.22696209
Fe       1.87409031       0.22513761       1.96184945
Fe       0.49040642       1.23103023       1.14213872
4
Lattice="2.707374334335327 0.0 0.0 0.3112848401069641 2.7800230979919434 0.0 0.4977782368659973 1.1783192157745361 5.587429046630859" Properties=species:S:1:pos:R:3 energy=14.917241096496582 pbc="T T T"
Fe       2.41894174       3.03844571       4.21433353
Fe       0.49524605       2.16447043       2.43561101
Fe       1.60250151       1.57408941       1.13127446
Fe       0.00000000       0.00000000       0.00000000
4
Lattice="2.349622964859009 0.0 0.0 0.0412171371281147 3.7023394107818604 0.0 0.8171114325523376 1.5671685934066772 3.289625883102417" Properties=species:S:1:pos:R:3 energy=23.749645233154297 pbc="T T T"
Fe       0.62414026       2.34515595       1.52515686
Fe       1.14938748       4.21346760       1.51684499
Fe       2.04563093       3.26408458       3.15915799
Fe       0.00000000       0.00000000       0.00000000
4
Lattice="2.7752254009246826 0.0 0.0 0.16432484984397888 2.966374635696411 0.0 0.08230824768543243 0.11185652762651443 2.9912102222442627" Properties=species:S:1:pos:R:3 energy=27.14205551147461 pbc="T T T"
Fe       1.66358888       1.52091300       2.85916805
Fe       0.31047809       1.46402431       1.47979748
Fe       1.75402927       2.88997221       1.35656393
Fe       0.00000000       0.00000000       0.00000000
4
Lattice="2.2057948112487793 0.0 0.0 0.5737277865409851 3.6417653560638428 0.0 0.05102226138114929 1.5464022159576416 3.5405304431915283" Properties=species:S:1:pos:R:3 energy=23.795536041259766 pbc="T T T"
Fe       0.58928078       0.81323826       1.75934494
Fe       1.02512443       3.30347991       3.23564386
Fe       1.93227899       2.60718441       1.63210976
Fe       0.00000000       0.00000000       0.00000000
4
Lattice="2.5828933715820312 0.0 0.0 0.13173073530197144 2.872478723526001 0.0 1.0100088119506836 0.22883589565753937 5.422635078430176" Properties=species:S:1:pos:R:3 energy=15.618712425231934 pbc="T T T"
Fe       0.00000000       0.00000000       0.00000000
Fe       2.00200415       1.94356191       3.65587687
Fe       0.78195161       0.54014295       2.20094323
Fe       1.47859299       1.93866265       1.34264183
4
Lattice="2.3225085735321045 0.0 0.0 -0.031146947294473648 3.8977859020233154 0.0 -1.036461353302002 -1.7892990112304688 3.558528184890747" Properties=species:S:1:pos:R:3 energy=20.182512283325195 pbc="T T T"
Fe       1.73738146       0.92107701       1.67368639
Fe       0.29836410      -0.74372721       1.82200933
Fe       0.71393675       2.03280711       0.10270674
Fe       0.00000000       0.00000000       0.00000000
4
Lattice="2.4426968097686768 0.0 0.0 1.4957204244147974e-16 2.4426968097686768 0.0 2.991440584131799e-16 2.991440584131799e-16 4.885393142700195" Properties=species:S:1:pos:R:3 energy=22.706707000732422 pbc="T T T"
Fe       1.25587034       1.58140469       3.43385768
Fe       0.40366349       0.16993278       2.22450089
Fe       1.43804240       1.21199238       1.22487652
Fe       0.00000000       0.00000000       0.00000000
4
Lattice="3.054266929626465 0.0 0.0 0.9470076560974121 3.0074775218963623 0.0 0.38238775730133057 0.06850550323724747 5.4863128662109375" Properties=species:S:1:pos:R:3 energy=11.69900894165039 pbc="T T T"
Fe       1.96521258       1.07541704       1.36788809
Fe       4.12825108       2.95406485       3.14189672
Fe       1.82510757       1.56220782       4.56256866
Fe       0.00000000       0.00000000       0.00000000
4
Lattice="2.505270004272461 0.0 0.0 -0.5212762951850891 3.09379506111145 0.0 -0.4474501311779022 -1.4316372871398926 5.407910346984863" Properties=species:S:1:pos:R:3 energy=14.642204284667969 pbc="T T T"
Fe       0.30164713       2.00633430       1.23874032
Fe       1.85314465       1.01584125       3.03338146
Fe       0.65950549       0.28424862       4.29360342
Fe       0.00000000       0.00000000       0.00000000
4
Lattice="2.9395673274993896 0.0 0.0 -0.25390636920928955 3.047114610671997 0.0 -0.8423970937728882 -1.411340594291687 4.973663806915283" Properties=species:S:1:pos:R:3 energy=13.971473693847656 pbc="T T T"
Fe       0.63432461       2.01395202       1.10114658
Fe       2.21872783       1.01725304       2.80500650
Fe       0.68210238       0.29723009       3.96051288
Fe       0.00000000       0.00000000       0.00000000
4
Lattice="2.3246145248413086 0.0 0.0 -0.5363813638687134 3.6084492206573486 0.0 -0.2813020944595337 -1.4830290079116821 3.5228075981140137" Properties=species:S:1:pos:R:3 energy=22.787004470825195 pbc="T T T"
Fe       1.41180813       0.76050442       1.63342953
Fe       0.18427822       2.40156698       1.70714009
Fe       0.66290462       0.13553497       3.40828347
Fe       0.00000000       0.00000000       0.00000000
4
Lattice="2.765096426010132 0.0 0.0 0.45390334725379944 2.8324697017669678 0.0 0.1449417918920517 0.28785163164138794 4.9040679931640625" Properties=species:S:1:pos:R:3 energy=16.58397674560547 pbc="T T T"
Fe       1.25869763       1.57545733       3.71333599
Fe       3.17408252       2.87768888       2.06826329
Fe       1.55783784       0.97838908       0.84298331
Fe       0.00000000       0.00000000       0.00000000
4
Lattice="2.1986138820648193 0.0 0.0 0.17621329426765442 3.6214423179626465 0.0 0.9757456183433533 1.7199444770812988 3.5839364528656006" Properties=species:S:1:pos:R:3 energy=23.632593154907227 pbc="T T T"
Fe       1.84445250       2.51777244       1.76016104
Fe       1.21192896       4.31987095       1.73940051
Fe       1.93412006       3.61924481       3.48011065
Fe       0.00000000       0.00000000       0.00000000
4
Lattice="2.1537115573883057 0.0 0.0 -0.4784582257270813 3.7998909950256348 0.0 -0.4248300790786743 -1.9773352146148682 3.582840919494629" Properties=species:S:1:pos:R:3 energy=22.882043838500977 pbc="T T T"
Fe       1.55186725      -0.68545878       1.80470407
Fe      -0.09911299       1.31670046       1.72291005
Fe       0.52448112      -0.16421530       3.54524517
Fe       0.00000000       0.00000000       0.00000000
4
Lattice="2.739011287689209 0.0 0.0 0.03136470168828964 2.7446815967559814 0.0 0.4132530689239502 0.23978209495544434 3.1388373374938965" Properties=species:S:1:pos:R:3 energy=30.48273277282715 pbc="T T T"
Fe       2.92632771       1.40193105       1.35853565
Fe       1.36094844       0.93740261       0.04950383
Fe       1.74515367       2.61815405       1.61016297
Fe       0.00000000       0.00000000       0.00000000
4
Lattice="2.9824178218841553 0.0 0.0 0.17704543471336365 3.1590869426727295 0.0 0.0777740553021431 0.11695840209722519 3.1671550273895264" Properties=species:S:1:pos:R:3 energy=21.913084030151367 pbc="T T T"
Fe       1.32047713       1.81333673       0.07940466
Fe       2.86650610       1.90968692       1.44362104
Fe       1.27183723       0.17158009       1.35959899
Fe       0.00000000       0.00000000       0.00000000
4
Lattice="2.6634135246276855 0.0 0.0 0.7652024626731873 2.9195618629455566 0.0 1.0490014553070068 -0.17054542899131775 4.786535263061523" Properties=species:S:1:pos:R:3 energy=17.366596221923828 pbc="T T T"
Fe       2.95805383       1.34691215       3.50906873
Fe       0.55094314      -0.00577012       1.98856640
Fe       2.00910878       1.90864730       0.78225309
Fe       0.00000000       0.00000000       0.00000000
4
Lattice="2.2599353790283203 0.0 0.0 0.7421523928642273 2.9310858249664307 0.0 0.8754807114601135 0.6326169371604919 4.879794120788574" Properties=species:S:1:pos:R:3 energy=20.27298927307129 pbc="T T T"
Fe       0.00000000       0.00000000       0.00000000
Fe       1.82958829       2.02459931       1.56876171
Fe       2.41684604       0.82243145       2.86814666
Fe       2.28891706       2.38106918       3.59789848
4
Lattice="2.788120985031128 0.0 0.0 0.16575245559215546 2.9787046909332275 0.0 0.08232762664556503 0.11286307871341705 3.0026345252990723" Properties=species:S:1:pos:R:3 energy=26.735990524291992 pbc="T T T"
Fe       1.64143825       1.55876768       2.87701797
Fe       0.28430390       1.50221682       1.46582699
Fe       1.73450577       2.91801620       1.33516645
Fe       0.00000000       0.00000000       0.00000000
4
Lattice="2.1900453567504883 0.0 0.0 0.13953541219234467 3.601757526397705 0.0 0.9568271636962891 1.7112549543380737 3.5756773948669434" Properties=species:S:1:pos:R:3 energy=23.97846221923828 pbc="T T T"
Fe       1.75651586       2.53344750       1.72360218
Fe       1.10649157       4.27398872       1.67049909
Fe       1.86531425       3.60613489       3.43318868
Fe       0.00000000       0.00000000       0.00000000
4
Lattice="2.274492025375366 0.0 0.0 -0.5225508213043213 3.6066694259643555 0.0 -0.32848840951919556 -1.4080312252044678 3.536015272140503" Properties=species:S:1:pos:R:3 energy=23.302692413330078 pbc="T T T"
Fe       1.41184700      -0.57594359       1.61499655
Fe       0.78587633       0.24130771       3.28227329
Fe       0.11554093       1.32644546       1.44441068
Fe       0.00000000       0.00000000       0.00000000
4
Lattice="2.3078010082244873 0.0 0.0 0.0018308182479813695 3.5590062141418457 0.0 0.04538140073418617 0.06613491475582123 3.5671708583831787" Properties=species:S:1:pos:R:3 energy=22.437318801879883 pbc="T T T"
Fe       0.29699972       1.33499217       1.48008502
Fe       1.25834537       3.33557081       1.81478298
Fe       1.04434860       1.93223190       3.30739665
Fe       0.00000000       0.00000000       0.00000000
4
Lattice="2.335120916366577 0.0 0.0 -0.3294314742088318 3.5177838802337646 0.0 -0.5258994102478027 -1.464901328086853 3.472588300704956" Properties=species:S:1:pos:R:3 energy=23.677934646606445 pbc="T T T"
Fe       1.66436803       0.92642242       1.64385939
Fe       0.27212155       2.70717978       1.82223737
Fe       0.47246471       0.51322538       3.36498165
Fe       0.00000000       0.00000000       0.00000000
4
Lattice="2.432302236557007 0.0 0.0 1.4893555012117734e-16 2.432302236557007 0.0 2.978710737725751e-16 2.978710737725751e-16 4.8646039962768555" Properties=species:S:1:pos:R:3 energy=22.97553825378418 pbc="T T T"
Fe       1.08877087       1.24015069       3.89198399
Fe       2.12115002       0.09476639       2.74640512
Fe       1.17082620       1.51843500       1.44378567
Fe       0.00000000       0.00000000       0.00000000
4
Lattice="2.1000916957855225 0.0 0.0 -0.5683528780937195 3.676668405532837 0.0 -0.22853420674800873 -1.871582269668579 3.7218856811523438" Properties=species:S:1:pos:R:3 energy=22.97769546508789 pbc="T T T"
Fe       1.31193817      -0.69195366       1.91902244
Fe       0.17028929       1.19847822       1.83594823
Fe       0.87144136       1.87476730       0.15803212
Fe       0.00000000       0.00000000       0.00000000
4
Lattice="2.807734489440918 0.0 0.0 0.16768665611743927 2.9969775676727295 0.0 0.08246020972728729 0.11418657749891281 3.01967191696167" Properties=species:S:1:pos:R:3 energy=26.15245819091797 pbc="T T T"
Fe       1.60682428       1.61805797       2.90502095
Fe       0.24186359       1.56285846       1.44519162
Fe       1.70146108       2.96251464       1.30531704
Fe       0.00000000       0.00000000       0.00000000
4
Lattice="2.0788731575012207 0.0 0.0 -0.5164027214050293 3.8800113201141357 0.0 -0.7961172461509705 -1.8999158143997192 3.5890016555786133" Properties=species:S:1:pos:R:3 energy=22.71940040588379 pbc="T T T"
Fe       1.02697718       1.92503142       0.35633010
Fe      -0.02699195       0.99648112       1.97098053
Fe       0.82568687      -0.86218309       1.89987683
Fe       0.00000000       0.00000000       0.00000000
4
Lattice="2.360180616378784 0.0 0.0 0.03820674866437912 3.758434534072876 0.0 0.8455703854560852 1.6192668676376343 3.345391273498535" Properties=species:S:1:pos:R:3 energy=22.937946319580078 pbc="T T T"
Fe       0.72708273       2.45965862       1.79299450
Fe       1.25729549       4.35189486       1.86074066
Fe       1.29959178       1.75774956       0.19437967
Fe       0.00000000       0.00000000       0.00000000
4
Lattice="1.9974926710128784 0.0 0.0 -0.3517383635044098 3.9115560054779053 0.0 -0.48883357644081116 -1.7071222066879272 3.760162830352783" Properties=species:S:1:pos:R:3 energy=22.462032318115234 pbc="T T T"
Fe       0.56714135       3.02432561       1.73386371
Fe       1.17176676       1.26760375       1.67603207
Fe       0.26369238       0.33196285       3.63603950
Fe       0.00000000       0.00000000       0.00000000
4
Lattice="2.503283977508545 0.0 0.0 1.5328192763644537e-16 2.503283977508545 0.0 3.0656385527289074e-16 3.0656385527289074e-16 5.00656795501709" Properties=species:S:1:pos:R:3 energy=20.953819274902344 pbc="T T T"
Fe       1.07311153       0.99320245       3.47278523
Fe       1.92017925       2.28027296       2.32626772
Fe       1.28653133       1.28557086       1.07249022
Fe       0.00000000       0.00000000       0.00000000
4
Lattice="2.4530036449432373 0.0 0.0 1.502031481616332e-16 2.4530036449432373 0.0 3.004062963232664e-16 3.004062963232664e-16 4.906007289886475" Properties=species:S:1:pos:R:3 energy=22.20834732055664 pbc="T T T"
Fe       1.22781026       1.25822651       3.65350032
Fe       0.10920411       0.00289013       2.26313305
Fe       1.23916411       1.15836680       1.29179096
Fe       0.00000000       0.00000000       0.00000000
4
Lattice="2.476457357406616 0.0 0.0 0.6093645095825195 2.7985363006591797 0.0 0.19359004497528076 0.31971269845962524 5.049928665161133" Properties=species:S:1:pos:R:3 energy=18.577722549438477 pbc="T T T"
Fe       1.81877077       1.19541895       3.82891250
Fe       0.78280461       2.84095740       2.13620043
Fe       2.06743670       1.45332122       0.83007258
Fe       0.00000000       0.00000000       0.00000000
4
Lattice="2.1008388996124268 0.0 0.0 -0.5374926924705505 3.7093944549560547 0.0 -0.23519301414489746 -1.8508976697921753 3.740006923675537" Properties=species:S:1:pos:R:3 energy=22.61688232421875 pbc="T T T"
Fe       1.36739326      -0.71648657       1.83077812
Fe       0.15186861       1.32279181       1.77592731
Fe       0.84925961       1.89480603       0.08753774
Fe       0.00000000       0.00000000       0.00000000
4
Lattice="1.9839752912521362 0.0 0.0 0.12120822072029114 3.8015167713165283 0.0 0.6408434510231018 1.3787668943405151 3.6516292095184326" Properties=species:S:1:pos:R:3 energy=24.262269973754883 pbc="T T T"
Fe       1.21681309       1.75068688       0.11361668
Fe       1.84208679       2.60962796       1.81421089
Fe       1.31548393       4.39376402       2.03319931
Fe       0.00000000       0.00000000       0.00000000
4
Lattice="2.1795835494995117 0.0 0.0 -0.7104843854904175 3.7154643535614014 0.0 -0.14407289028167725 -1.650507926940918 3.5251941680908203" Properties=species:S:1:pos:R:3 energy=23.59160041809082 pbc="T T T"
Fe       1.57187593       1.27160084       1.61461115
Fe       0.28865340       0.19685596       3.46810603
Fe       1.09250081      -0.77837890       1.93645930
Fe       0.00000000       0.00000000       0.00000000
4
Lattice="2.473361015319824 0.0 0.0 1.5144968949241591e-16 2.473361015319824 0.0 3.0289940545461143e-16 3.0289940545461143e-16 4.946722507476807" Properties=species:S:1:pos:R:3 energy=21.746042251586914 pbc="T T T"
Fe       1.03747809       1.30207849       3.63849568
Fe       0.14760731       0.10807913       2.37752271
Fe       1.33614254       1.58554828       1.07566762
Fe       0.00000000       0.00000000       0.00000000
4
Lattice="2.3620920181274414 0.0 0.0 0.5594143867492676 3.08148455619812 0.0 0.456228643655777 0.491110235452652 5.393049716949463" Properties=species:S:1:pos:R:3 energy=16.097702026367188 pbc="T T T"
Fe       0.00000000       0.00000000       0.00000000
Fe       1.73024082       2.22354531       3.60861421
Fe       0.55276495       0.64869142       2.19601846
Fe       1.44366860       2.10638499       1.30054808
4
Lattice="2.2662320137023926 0.0 0.0 0.5405219793319702 3.745244264602661 0.0 0.4219859540462494 1.6810803413391113 3.483654260635376" Properties=species:S:1:pos:R:3 energy=23.477346420288086 pbc="T T T"
Fe       0.61345506       1.15854383       1.41224384
Fe       2.15457988       3.66061783       3.35252166
Fe       1.01785994       2.78196311       1.67112279
Fe       0.00000000       0.00000000       0.00000000
4
Lattice="2.3110032081604004 0.0 0.0 -0.1916007399559021 3.388946056365967 0.0 -0.17057564854621887 -0.3707115650177002 3.5684168338775635" Properties=species:S:1:pos:R:3 energy=24.287609100341797 pbc="T T T"
Fe       0.21084403       1.16250849       1.88898945
Fe       1.07855165       2.70902061       1.62833834
Fe       1.34361160       1.51440918       0.07573554
Fe       0.00000000       0.00000000       0.00000000
4
Lattice="2.5316176414489746 0.0 0.0 -0.23742762207984924 3.1267497539520264 0.0 -0.3305233120918274 -0.6349093317985535 5.233633995056152" Properties=species:S:1:pos:R:3 energy=15.082771301269531 pbc="T T T"
Fe       1.19541812       1.84799743       1.35195386
Fe      -0.09827530      -0.27332157       3.02224016
Fe       1.36463296       1.03215599       4.36646366
Fe       0.00000000       0.00000000       0.00000000
4
Lattice="2.3023769855499268 0.0 0.0 -0.06729201227426529 3.9080708026885986 0.0 -1.0852715969085693 -1.845422625541687 3.5683798789978027" Properties=species:S:1:pos:R:3 energy=20.208372116088867 pbc="T T T"
Fe       1.75234401       0.97413814       1.70264971
Fe       0.20761822      -0.87141323       1.84994912
Fe       0.70989805       2.07281923       0.13324951
Fe       0.00000000       0.00000000       0.00000000
4