4
Lattice="1.9066429525094681 0.0 0.0 -0.5440124066528645 2.727547349671635 0.0 -0.3563682865900232 -0.09312038535372864 4.739293382793378" Properties=species:S:1:pos:R:3:forces:R:3 energy=27.715064170401277 pbc="T T T"
Fe       0.00000000       0.00000000       0.00000000       0.00000000       0.00000000       0.00000000
Fe       0.59534637       1.28616506       3.75452808       0.00000000       0.00000000       0.00000000
Fe      -0.55036716       2.59885344       2.49769022       0.00000000       0.00000000       0.00000000
Fe       0.55680527       1.27356952       1.39389907       0.00000000       0.00000000       0.00000000
4
Lattice="2.296219510686094 0.0 0.0 0.17053688752727156 3.48959882501732 0.0 0.28273881985253496 0.7897971548440492 3.3918218444909964" Properties=species:S:1:pos:R:3:forces:R:3 energy=24.499055012317456 pbc="T T T"
Fe       0.00000000       0.00000000       0.00000000       0.00000000       0.00000000       0.00000000
Fe       0.79464700       2.56014896       1.86271309       0.00000000       0.00000000       0.00000000
Fe       1.95293831       2.56581522       3.37978162       0.00000000       0.00000000       0.00000000
Fe       1.49556243       0.82583974       1.73901121       0.00000000       0.00000000       0.00000000
4
Lattice="2.1199775698850174 0.0 0.0 0.8018769494578742 3.388506404267958 0.0 0.7386516047963038 -0.02028372930021203 3.8482591046695442" Properties=species:S:1:pos:R:3:forces:R:3 energy=24.04976474750174 pbc="T T T"
Fe       0.00000000       0.00000000       0.00000000       0.00000000       0.00000000       0.00000000
Fe       2.33587102       1.75885934       2.49191544       0.00000000       0.00000000       0.00000000
Fe       3.15393138       3.27473057       2.02889748       0.00000000       0.00000000       0.00000000
Fe       1.06286587       1.42016505       0.76359177       0.00000000       0.00000000       0.00000000
4
Lattice="2.2278360564737714 0.0 0.0 -0.3794797211991427 3.5190333965910927 0.0 -0.9837566260490507 -0.8693565225971936 3.409897801770248" Properties=species:S:1:pos:R:3:forces:R:3 energy=25.696288238329668 pbc="T T T"
Fe       0.00000000       0.00000000       0.00000000       0.00000000       0.00000000       0.00000000
Fe       1.00407527      -0.03695939       1.34398169       0.00000000       0.00000000       0.00000000
Fe      -0.32777144       1.81241565       1.65074905       0.00000000       0.00000000       0.00000000
Fe       0.14073702       0.49230689       3.29095705       0.00000000       0.00000000       0.00000000
4
Lattice="2.3952576715291696 0.0 0.0 0.3855291316384153 3.00107388253469 0.0 0.7378342662266069 0.4226192950073166 3.6899764797111616" Properties=species:S:1:pos:R:3:forces:R:3 energy=25.387210450545375 pbc="T T T"
Fe       0.00000000       0.00000000       0.00000000       0.00000000       0.00000000       0.00000000
Fe       1.70467266       1.45143769       1.09801796       0.00000000       0.00000000       0.00000000
Fe       1.06918608       3.20129124       1.89885906       0.00000000       0.00000000       0.00000000
Fe       2.34296991       1.87185021       2.88868384       0.00000000       0.00000000       0.00000000
4
Lattice="2.3378292439299395 0.0 0.0 -0.43646458441614466 3.5626920374872424 0.0 -0.41341180752133033 -1.4788806140545199 3.4996089654162423" Properties=species:S:1:pos:R:3:forces:R:3 energy=22.579098988233348 pbc="T T T"
Fe       0.00000000       0.00000000       0.00000000       0.00000000       0.00000000       0.00000000
Fe       1.02177318       1.73116931       0.13594007       0.00000000       0.00000000       0.00000000
Fe       1.39463941      -0.41618950       1.75717599       0.00000000       0.00000000       0.00000000
Fe      -0.07833582       1.19221540       1.89089276       0.00000000       0.00000000       0.00000000
4
Lattice="2.0891725769264644 0.0 0.0 -0.20733090548663097 3.575609323383146 0.0 -0.23927736340602762 -0.7018754879317599 3.527321957319236" Properties=species:S:1:pos:R:3:forces:R:3 energy=25.558474645016513 pbc="T T T"
Fe       0.00000000       0.00000000       0.00000000       0.00000000       0.00000000       0.00000000
Fe       0.84904534       1.52001973       2.23014148       0.00000000       0.00000000       0.00000000
Fe       0.39426947      -0.21837795       1.83263508       0.00000000       0.00000000       0.00000000
Fe       1.90400568       1.83620797       0.64290173       0.00000000       0.00000000       0.00000000
4
Lattice="1.9937105956723793 0.0 0.0 0.43866622671264976 3.5597066867543443 0.0 0.5813274697037542 0.5085902870085051 3.9781668113885784" Properties=species:S:1:pos:R:3:forces:R:3 energy=23.63559530782298 pbc="T T T"
Fe       0.00000000       0.00000000       0.00000000       0.00000000       0.00000000       0.00000000
Fe       1.03344718       1.76001201       0.69703498       0.00000000       0.00000000       0.00000000
Fe       1.86306472       0.37890249       1.96127093       0.00000000       0.00000000       0.00000000
Fe       2.49427705       1.94405597       2.51840842       0.00000000       0.00000000       0.00000000
4
Lattice="2.2499075087491787 0.0 0.0 -0.8737522534126191 3.4779564609287896 0.0 -0.2455125012956118 -1.71319347446586 3.274634544086273" Properties=species:S:1:pos:R:3:forces:R:3 energy=26.361697048739735 pbc="T T T"
Fe       0.86428264       1.85128412       0.23189934       0.00000000       0.00000000       0.00000000
Fe       0.10232678       2.48453457       1.72393601       0.00000000       0.00000000       0.00000000
Fe      -0.32057543       0.48790707       1.78130233       0.00000000       0.00000000       0.00000000
Fe       0.00000000       0.00000000       0.00000000       0.00000000       0.00000000       0.00000000
4
Lattice="2.298932602244655 0.0 0.0 -0.01465626721690153 2.573003597002325 0.0 -0.06831077260530026 -0.026853658351454375 4.989651002002155" Properties=species:S:1:pos:R:3:forces:R:3 energy=22.290221591317795 pbc="T T T"
Fe       0.00000000       0.00000000       0.00000000       0.00000000       0.00000000       0.00000000
Fe       0.95486005       1.15953756       1.06942172       0.00000000       0.00000000       0.00000000
Fe       0.02371570       2.39165188       2.65193784       0.00000000       0.00000000       0.00000000
Fe       1.29874281       1.22912436       3.77735147       0.00000000       0.00000000       0.00000000
4
Lattice="1.9489559622661532 0.0 0.0 -0.10830497274414577 3.6570871077890375 0.0 -0.9121790568046827 -0.05055027814299109 3.6498400124793324" Properties=species:S:1:pos:R:3:forces:R:3 energy=25.955967364987288 pbc="T T T"
Fe       0.00000000       0.00000000       0.00000000       0.00000000       0.00000000       0.00000000
Fe      -0.65515523       1.57744727       3.03916010       0.00000000       0.00000000       0.00000000
Fe      -0.20764605       3.44118926       1.91156582       0.00000000       0.00000000       0.00000000
Fe       0.83084718       1.67861470       1.13568185       0.00000000       0.00000000       0.00000000
4
Lattice="1.9556765128403137 0.0 0.0 0.5723897032870225 3.612461799951798 0.0 0.23879392700256086 1.2972084271614885 3.836470623709831" Properties=species:S:1:pos:R:3:forces:R:3 energy=24.779518534339513 pbc="T T T"
Fe       0.00000000       0.00000000       0.00000000       0.00000000       0.00000000       0.00000000
Fe       0.72141055       2.78273846       1.59763335       0.00000000       0.00000000       0.00000000
Fe       1.41327426       0.85430861       1.95658667       0.00000000       0.00000000       0.00000000
Fe       1.79768283       3.05832474       3.52388459       0.00000000       0.00000000       0.00000000
4
Lattice="2.1057945622874854 0.0 0.0 0.22227524000519294 3.6778274948760257 0.0 1.013012011576184 -0.04909123850964232 3.739705708977657" Properties=species:S:1:pos:R:3:forces:R:3 energy=22.932469639042516 pbc="T T T"
Fe       0.00000000       0.00000000       0.00000000       0.00000000       0.00000000       0.00000000
Fe       0.72269121       1.79369016       0.70072096       0.00000000       0.00000000       0.00000000
Fe       1.35445717       3.46984315       1.94322824       0.00000000       0.00000000       0.00000000
Fe       2.34413343       1.49921711       2.43325979       0.00000000       0.00000000       0.00000000
4
Lattice="2.0640694684117373 0.0 0.0 -0.17639211092297727 3.457118807368277 0.0 -0.8287505278312208 -0.8038969862516868 4.078634315573206" Properties=species:S:1:pos:R:3:forces:R:3 energy=22.528152270056438 pbc="T T T"
Fe       0.34798832       1.08334595       3.20953098       0.00000000       0.00000000       0.00000000
Fe       1.26027532      -0.10299349       1.92717788       0.00000000       0.00000000       0.00000000
Fe       0.08721651       1.63385092       1.02792157       0.00000000       0.00000000       0.00000000
Fe       0.00000000       0.00000000       0.00000000       0.00000000       0.00000000       0.00000000
4
Lattice="2.1520441213135544 0.0 0.0 -0.30901552006872557 3.4558425033092037 0.0 -0.7872496599751666 -0.538953250985505 3.843023541746597" Properties=species:S:1:pos:R:3:forces:R:3 energy=23.048019645727358 pbc="T T T"
Fe      -0.23742896       1.49263220       3.02815871       0.00000000       0.00000000       0.00000000
Fe       0.21574214       3.09395772       1.99357184       0.00000000       0.00000000       0.00000000
Fe       1.38744484       1.22806976       1.13136668       0.00000000       0.00000000       0.00000000
Fe       0.00000000       0.00000000       0.00000000       0.00000000       0.00000000       0.00000000
4
Lattice="2.2616642388362753 0.0 0.0 -0.1280793165961767 3.24706860325817 0.0 -0.8917922430367083 -0.6673278972094143 3.678925197556628" Properties=species:S:1:pos:R:3:forces:R:3 energy=24.668562764593222 pbc="T T T"
Fe       0.00000000       0.00000000       0.00000000       0.00000000       0.00000000       0.00000000
Fe      -0.01581042       1.47724739       2.34931918       0.00000000       0.00000000       0.00000000
Fe       1.26532701      -0.24570796       1.67140595       0.00000000       0.00000000       0.00000000
Fe       0.74243368       1.48560708       0.48075610       0.00000000       0.00000000       0.00000000
4
Lattice="2.0910098802015424 0.0 0.0 0.7038592590261215 3.134493130161758 0.0 0.6164320979568187 0.690548254665773 3.693708463286004" Properties=species:S:1:pos:R:3:forces:R:3 energy=29.449086484965154 pbc="T T T"
Fe       0.64660289       2.03501340       1.22157983       0.00000000       0.00000000       0.00000000
Fe       2.05454199       2.17071323       3.20123171       0.00000000       0.00000000       0.00000000
Fe       1.91800275       3.43197958       2.13275709       0.00000000       0.00000000       0.00000000
Fe       0.00000000       0.00000000       0.00000000       0.00000000       0.00000000       0.00000000
4
Lattice="2.0793753900500858 0.0 0.0 0.7004003767817572 3.2720267214167973 0.0 0.9314410822479561 0.15757524199344514 4.237036592561759" Properties=species:S:1:pos:R:3:forces:R:3 energy=22.940359732703275 pbc="T T T"
Fe       1.50272631       2.02472955       1.43821165       0.00000000       0.00000000       0.00000000
Fe       2.22494138       0.49158104       2.38762173       0.00000000       0.00000000       0.00000000
Fe       2.49564511       1.92617009       3.35807335       0.00000000       0.00000000       0.00000000
Fe       0.00000000       0.00000000       0.00000000       0.00000000       0.00000000       0.00000000
4
Lattice="2.2080781669629492 0.0 0.0 0.12355218006774232 3.6468051868031215 0.0 0.6398702177687324 0.8520010213340137 3.606587989684978" Properties=species:S:1:pos:R:3:forces:R:3 energy=22.909696320432353 pbc="T T T"
Fe       2.20536930       2.43098871       3.18971103       0.00000000       0.00000000       0.00000000
Fe       1.09699769       3.44172458       1.82606242       0.00000000       0.00000000       0.00000000
Fe       1.62866454       1.42331704       1.41886789       0.00000000       0.00000000       0.00000000
Fe       0.00000000       0.00000000       0.00000000       0.00000000       0.00000000       0.00000000
4
Lattice="2.117121071302394 0.0 0.0 0.04530842298366416 3.441131635318327 0.0 0.02856859014500197 0.10427580732311187 3.7332828182141315" Properties=species:S:1:pos:R:3:forces:R:3 energy=24.582332067494704 pbc="T T T"
Fe       0.16250307       1.91339456       1.01040676       0.00000000       0.00000000       0.00000000
Fe       1.58365659       0.38522389       1.73316087       0.00000000       0.00000000       0.00000000
Fe       1.52697218       1.98488846       2.92801356       0.00000000       0.00000000       0.00000000
Fe       0.00000000       0.00000000       0.00000000       0.00000000       0.00000000       0.00000000
4
Lattice="1.9667135619210436 0.0 0.0 0.244418051643009 3.6283737639215587 0.0 0.7244358988219927 0.0021068108730788924 3.6157467610428125" Properties=species:S:1:pos:R:3:forces:R:3 energy=26.1245882195273 pbc="T T T"
Fe       1.70209618       1.64057686       3.13534534       0.00000000       0.00000000       0.00000000
Fe       1.50841304       0.02545062       1.90307089       0.00000000       0.00000000       0.00000000
Fe       1.06481313       2.02510184       1.41253298       0.00000000       0.00000000       0.00000000
Fe       0.00000000       0.00000000       0.00000000       0.00000000       0.00000000       0.00000000
4
Lattice="2.166825099159024 0.0 0.0 -0.47121620297713523 3.7926574923614105 0.0 -0.45338873217203474 -1.974625386976915 3.586716720024966" Properties=species:S:1:pos:R:3:forces:R:3 energy=22.150133670173506 pbc="T T T"
Fe       1.56909243      -0.72838193       1.83718388       0.00000000       0.00000000       0.00000000
Fe      -0.09466616       1.34467180       1.72947406       0.00000000       0.00000000       0.00000000
Fe       0.52885627      -0.19159427       3.56020618       0.00000000       0.00000000       0.00000000
Fe       0.00000000       0.00000000       0.00000000       0.00000000       0.00000000       0.00000000
4
Lattice="2.0456149423705337 0.0 0.0 0.04606089016482771 3.968617883221173 0.0 0.3961661414897841 1.247669873387538 3.8632063705719975" Properties=species:S:1:pos:R:3:forces:R:3 energy=20.72578864620143 pbc="T T T"
Fe       1.47879214       1.01835812       1.97928887       0.00000000       0.00000000       0.00000000
Fe       1.16022168       2.00743099       0.00846622       0.00000000       0.00000000       0.00000000
Fe       2.25144494       2.76146989       1.88634611       0.00000000       0.00000000       0.00000000
Fe       0.00000000       0.00000000       0.00000000       0.00000000       0.00000000       0.00000000
4
Lattice="2.0542902735605173 0.0 0.0 0.2989852916227508 3.6299805350007786 0.0 0.6581102560160077 0.031856545153235834 3.626494676393737" Properties=species:S:1:pos:R:3:forces:R:3 energy=24.722788149279285 pbc="T T T"
Fe       1.79095703       1.70627156       3.11020314       0.00000000       0.00000000       0.00000000
Fe       1.54771807       0.09671857       1.75148182       0.00000000       0.00000000       0.00000000
Fe       0.88848864       1.97826427       1.18947437       0.00000000       0.00000000       0.00000000
Fe       0.00000000       0.00000000       0.00000000       0.00000000       0.00000000       0.00000000
4
Lattice="2.259848631826831 0.0 0.0 0.10324080211542641 3.839730286907709 0.0 0.36589006212028286 0.05905530208360789 4.159064764482227" Properties=species:S:1:pos:R:3:forces:R:3 energy=17.714725139111387 pbc="T T T"
Fe       0.00000000       0.00000000       0.00000000       0.00000000       0.00000000       0.00000000
Fe       2.05691696       1.79313404       4.11522544       0.00000000       0.00000000       0.00000000
Fe       0.36273134       1.67925975       2.05974097       0.00000000       0.00000000       0.00000000
Fe       1.61229277       3.47818286       1.93399489       0.00000000       0.00000000       0.00000000
4
Lattice="1.9959945245131727 0.0 0.0 0.5734936487847692 3.6078233868482745 0.0 0.1486136870240532 1.2890762045372528 3.8326876566643544" Properties=species:S:1:pos:R:3:forces:R:3 energy=24.160739301640874 pbc="T T T"
Fe       1.31377468       1.75075220       0.33661235       0.00000000       0.00000000       0.00000000
Fe       1.34710179       0.78596531       1.97609152       0.00000000       0.00000000       0.00000000
Fe       0.65117859       2.67188592       2.38324931       0.00000000       0.00000000       0.00000000
Fe       0.00000000       0.00000000       0.00000000       0.00000000       0.00000000       0.00000000
4
Lattice="2.1891823071281356 0.0 0.0 -0.3588007015224113 3.546498450180582 0.0 -0.7362665928183629 -1.0999547304869783 3.3443779087889256" Properties=species:S:1:pos:R:3:forces:R:3 energy=25.82138066074209 pbc="T T T"
Fe       0.00000000       0.00000000       0.00000000       0.00000000       0.00000000       0.00000000
Fe       1.15059899      -0.01322352       1.51743088       0.00000000       0.00000000       0.00000000
Fe      -0.19847857       1.80778757       1.64729498       0.00000000       0.00000000       0.00000000
Fe      -0.25021279       0.54886574       3.23354088       0.00000000       0.00000000       0.00000000
4
Lattice="2.142263868107914 0.0 0.0 0.1889922464982304 3.54248101248827 0.0 1.0039358632561628 0.35463132528603936 3.749086398638501" Properties=species:S:1:pos:R:3:forces:R:3 energy=24.280142853006247 pbc="T T T"
Fe       0.00000000       0.00000000       0.00000000       0.00000000       0.00000000       0.00000000
Fe       1.29594238       1.79941246       0.77440308       0.00000000       0.00000000       0.00000000
Fe       1.98266982       3.75571170       2.31163047       0.00000000       0.00000000       0.00000000
Fe       2.55379916       2.00313412       2.35402203       0.00000000       0.00000000       0.00000000
4
Lattice="2.177141408878966 0.0 0.0 0.07688381899969794 3.873478348866119 0.0 0.1100659506519181 1.1443647696562145 3.727112793517996" Properties=species:S:1:pos:R:3:forces:R:3 energy=20.756558839027875 pbc="T T T"
Fe       0.94245439       1.35416879       2.12922857       0.00000000       0.00000000       0.00000000
Fe       1.20834898       2.19222946       0.22289532       0.00000000       0.00000000       0.00000000
Fe       1.84490129       3.12508637       2.11670745       0.00000000       0.00000000       0.00000000
Fe       0.00000000       0.00000000       0.00000000       0.00000000       0.00000000       0.00000000
4
Lattice="2.2588807667087094 0.0 0.0 -0.22502265203253358 3.3229018363225045 0.0 -0.04095243871982925 -1.4853737044848172 3.529565905304728" Properties=species:S:1:pos:R:3:forces:R:3 energy=25.324928574840687 pbc="T T T"
Fe       0.90091401       2.42616857       1.63746897       0.00000000       0.00000000       0.00000000
Fe       1.32294308      -0.04486812       3.38982626       0.00000000       0.00000000       0.00000000
Fe       1.90802440       0.83781534       1.91483715       0.00000000       0.00000000       0.00000000
Fe       0.00000000       0.00000000       0.00000000       0.00000000       0.00000000       0.00000000
4
Lattice="2.5365527493446103 0.0 0.0 -0.031371180288654876 3.454433808966638 0.0 -0.3447650554968011 -0.1862313790641304 3.7616690732862215" Properties=species:S:1:pos:R:3:forces:R:3 energy=19.75778420022177 pbc="T T T"
Fe       0.83283078       0.36649800       1.59473301       0.00000000       0.00000000       0.00000000
Fe      -0.09082601       1.98876287       2.09436406       0.00000000       0.00000000       0.00000000
Fe       1.35738733       1.59120099       0.00261459       0.00000000       0.00000000       0.00000000
Fe       0.00000000       0.00000000       0.00000000       0.00000000       0.00000000       0.00000000
4
Lattice="2.117792068005389 0.0 0.0 0.6137784857976751 3.587924079056854 0.0 0.6335346845337864 0.5122894175344606 3.8235602283571053" Properties=species:S:1:pos:R:3:forces:R:3 energy=22.91542175747337 pbc="T T T"
Fe       1.04609495       1.84371573       1.26905604       0.00000000       0.00000000       0.00000000
Fe       1.53541068       3.70030830       1.89045103       0.00000000       0.00000000       0.00000000
Fe       1.54458989       2.13703503       2.90869047       0.00000000       0.00000000       0.00000000
Fe       0.00000000       0.00000000       0.00000000       0.00000000       0.00000000       0.00000000
4
Lattice="2.0472564500777026 0.0 0.0 -0.18465946629277907 3.820148781438702 0.0 -0.2281955078337907 -1.0522359774004963 3.8892861746882526" Properties=species:S:1:pos:R:3:forces:R:3 energy=21.532424521871295 pbc="T T T"
Fe       0.82018636       3.28730812       1.78189202       0.00000000       0.00000000       0.00000000
Fe       0.68142548       0.86338046       3.42115567       0.00000000       0.00000000       0.00000000
Fe       0.13525755       1.27549354       1.80106457       0.00000000       0.00000000       0.00000000
Fe       0.00000000       0.00000000       0.00000000       0.00000000       0.00000000       0.00000000
4
Lattice="2.1095702416848585 0.0 0.0 0.6333819920544981 3.2060772730364846 0.0 0.7357174466299026 0.321405820056062 3.912449782480524" Properties=species:S:1:pos:R:3:forces:R:3 energy=25.34408950064724 pbc="T T T"
Fe       0.68812731       1.75692437       0.99475342       0.00000000       0.00000000       0.00000000
Fe       2.06805557       0.24189388       1.94251825       0.00000000       0.00000000       0.00000000
Fe       1.40666316       1.92110300       2.83355259       0.00000000       0.00000000       0.00000000
Fe       0.00000000       0.00000000       0.00000000       0.00000000       0.00000000       0.00000000
4
Lattice="2.3291994219800647 0.0 0.0 0.7398928955433541 3.3674430452954116 0.0 0.23195185485792882 0.5872922871018748 3.5015487754876142" Properties=species:S:1:pos:R:3:forces:R:3 energy=24.320259578454273 pbc="T T T"
Fe       0.00000000       0.00000000       0.00000000       0.00000000       0.00000000       0.00000000
Fe       0.72829134       2.29658790       1.91610786       0.00000000       0.00000000       0.00000000
Fe       1.60716173       0.72215588       1.64017727       0.00000000       0.00000000       0.00000000
Fe       1.63541408       1.77911817       0.08410388       0.00000000       0.00000000       0.00000000
4
Lattice="2.3652644364116218 0.0 0.0 0.6911662813766436 3.4161816437875947 0.0 0.2807960110675712 0.5159087692155999 3.5323952958806304" Properties=species:S:1:pos:R:3:forces:R:3 energy=23.310852447193845 pbc="T T T"
Fe       0.00000000       0.00000000       0.00000000       0.00000000       0.00000000       0.00000000
Fe       0.65305321       2.31343961       2.08456293       0.00000000       0.00000000       0.00000000
Fe       1.76328717       0.81350505       1.61867429       0.00000000       0.00000000       0.00000000
Fe       1.85619830       1.94434279       0.25809920       0.00000000       0.00000000       0.00000000
4
Lattice="2.1494236357668424 0.0 0.0 0.24093121697692269 3.5302240223235293 0.0 0.8280915276544496 1.645024782197176 3.6001514479646897" Properties=species:S:1:pos:R:3:forces:R:3 energy=24.343259532075997 pbc="T T T"
Fe       1.99662076       3.58321854       3.18996798       0.00000000       0.00000000       0.00000000
Fe       1.64373818       2.51418432       1.77363153       0.00000000       0.00000000       0.00000000
Fe       0.61960176       0.79589956       1.51084301       0.00000000       0.00000000       0.00000000
Fe       0.00000000       0.00000000       0.00000000       0.00000000       0.00000000       0.00000000
4
Lattice="2.0402183931772035 0.0 0.0 -0.5589329028195349 3.766941480270333 0.0 -0.07528692652695643 -1.5757511995261435 3.511384386208014" Properties=species:S:1:pos:R:3:forces:R:3 energy=24.57468426639254 pbc="T T T"
Fe       0.00000000       0.00000000       0.00000000       0.00000000       0.00000000       0.00000000
Fe       1.68764011       1.10471325       1.78365296       0.00000000       0.00000000       0.00000000
Fe       0.84877050       1.91818003       0.23740161       0.00000000       0.00000000       0.00000000
Fe       0.88674495      -0.75490644       1.92552641       0.00000000       0.00000000       0.00000000
4
Lattice="1.9886363154002826 0.0 0.0 0.4145022251173537 3.5514383693285585 0.0 0.5154653226278046 0.34422425259895734 3.9962680926051104" Properties=species:S:1:pos:R:3:forces:R:3 energy=23.615251679176588 pbc="T T T"
Fe       0.00000000       0.00000000       0.00000000       0.00000000       0.00000000       0.00000000
Fe       2.30160688       2.01622859       1.53895721       0.00000000       0.00000000       0.00000000
Fe       1.75724626       3.66643735       2.08298229       0.00000000       0.00000000       0.00000000
Fe       1.94142869       2.12075785       3.39158889       0.00000000       0.00000000       0.00000000
4
Lattice="2.3085355810847568 0.0 0.0 -0.007486302242038049 2.5858924502169316 0.0 -0.06797324895785554 -0.028677711219743038 4.994767926703712" Properties=species:S:1:pos:R:3:forces:R:3 energy=22.015679468230775 pbc="T T T"
Fe       0.96232194       1.31656827       1.21101974       0.00000000       0.00000000       0.00000000
Fe       1.91202061       2.50572242       2.27629945       0.00000000       0.00000000       0.00000000
Fe       0.97738389       1.15504582       3.84194802       0.00000000       0.00000000       0.00000000
Fe       0.00000000       0.00000000       0.00000000       0.00000000       0.00000000       0.00000000
4
Lattice="1.9997606787207556 0.0 0.0 0.9752436313167666 3.7241338314941377 0.0 0.2691118223179374 0.7548281209954807 3.9860556781599294" Properties=species:S:1:pos:R:3:forces:R:3 energy=22.167834557855013 pbc="T T T"
Fe       1.97151176       2.17233887       1.37879153       0.00000000       0.00000000       0.00000000
Fe       1.26907949       0.42956851       1.97587855       0.00000000       0.00000000       0.00000000
Fe       0.90739767       2.29999456       3.23977804       0.00000000       0.00000000       0.00000000
Fe       0.00000000       0.00000000       0.00000000       0.00000000       0.00000000       0.00000000
4
Lattice="2.256893706283042 0.0 0.0 0.004240230245879342 3.535525652977199 0.0 0.10600102286814614 0.0023580875996233952 3.8214505683315108" Properties=species:S:1:pos:R:3:forces:R:3 energy=21.375344211663673 pbc="T T T"
Fe       0.00000000       0.00000000       0.00000000       0.00000000       0.00000000       0.00000000
Fe       1.01502393       1.61819185       1.02742301       0.00000000       0.00000000       0.00000000
Fe       0.76887647       3.34179277       1.94025061       0.00000000       0.00000000       0.00000000
Fe       1.89056197       1.83500914       2.80671569       0.00000000       0.00000000       0.00000000
4
Lattice="2.1892495126338773 0.0 0.0 -0.5880637853535922 3.413440624902778 0.0 -0.5091069189010273 -0.7731548217259533 3.9271805242040134" Properties=species:S:1:pos:R:3:forces:R:3 energy=22.509875589494126 pbc="T T T"
Fe       0.82757457       1.72110308       0.39105395       0.00000000       0.00000000       0.00000000
Fe       0.05371327       2.90140600       1.79616423       0.00000000       0.00000000       0.00000000
Fe       1.52325562       1.28139530       2.49198946       0.00000000       0.00000000       0.00000000
Fe       0.00000000       0.00000000       0.00000000       0.00000000       0.00000000       0.00000000
4
Lattice="2.028103410118555 0.0 0.0 0.33100255709492893 3.476786372171732 0.0 0.4279244997960962 0.549618435845737 3.7207111799340393" Properties=species:S:1:pos:R:3:forces:R:3 energy=25.607014631593444 pbc="T T T"
Fe       1.50470760       2.03798559       0.84292518       0.00000000       0.00000000       0.00000000
Fe       1.23077880       1.91730252       2.67135119       0.00000000       0.00000000       0.00000000
Fe       1.22234791       0.30139879       1.58340122       0.00000000       0.00000000       0.00000000
Fe       0.00000000       0.00000000       0.00000000       0.00000000       0.00000000       0.00000000
4
Lattice="2.1345685731118946 0.0 0.0 0.4950550650204355 3.4816228838077072 0.0 0.5087421112482846 0.048898712802668075 3.6817945430924155" Properties=species:S:1:pos:R:3:forces:R:3 energy=24.288419577497038 pbc="T T T"
Fe       0.74190196       1.63333635       1.14559763       0.00000000       0.00000000       0.00000000
Fe       2.15461160       3.26318468       1.76608527       0.00000000       0.00000000       0.00000000
Fe       1.95709542       1.62910552       2.97272149       0.00000000       0.00000000       0.00000000
Fe       0.00000000       0.00000000       0.00000000       0.00000000       0.00000000       0.00000000
4
Lattice="2.8295264202011756 0.0 0.0 0.5166852535404427 3.519901415891481 0.0 0.17827382990438753 0.5647032767222016 4.055834829038574" Properties=species:S:1:pos:R:3:forces:R:3 energy=15.572995787081082 pbc="T T T"
Fe       0.00000000       0.00000000       0.00000000       0.00000000       0.00000000       0.00000000
Fe       1.61225460       0.36111105       1.71625494       0.00000000       0.00000000       0.00000000
Fe       2.33094240       2.40039675       4.01559170       0.00000000       0.00000000       0.00000000
Fe       0.77136158       2.04540764       2.22337349       0.00000000       0.00000000       0.00000000
4
Lattice="2.272213386528865 0.0 0.0 0.3996154132968847 3.446111720592967 0.0 0.04865425990281413 1.5479501381418261 3.5292545109613656" Properties=species:S:1:pos:R:3:forces:R:3 energy=24.085175361915965 pbc="T T T"
Fe       1.40819196       0.91159635       1.95907563       0.00000000       0.00000000       0.00000000
Fe       1.26193326       3.18094982       3.50824966       0.00000000       0.00000000       0.00000000
Fe       2.27111867       2.68708243       1.82116768       0.00000000       0.00000000       0.00000000